-1.211250 1.079812e-17
-1.049750 1.081884e-17
-0.888250 1.085196e-17
-0.726750 1.088502e-17
-0.565250 1.090710e-17
-0.403750 1.091360e-17
-0.242250 1.090814e-17
-0.080750 1.090053e-17
0.080750 1.090195e-17
0.242250 1.091949e-17
0.403750 1.095263e-17
0.565250 1.099339e-17
0.726750 1.102989e-17
0.888250 1.105194e-17
1.049750 1.105569e-17
1.211250 1.104555e-17
1.372750 1.103210e-17
1.534250 1.102731e-17
1.695750 1.103898e-17
1.857250 1.106723e-17
2.018750 1.110447e-17
2.180250 1.113897e-17
2.341750 1.116035e-17
2.503250 1.116436e-17
2.664750 1.115485e-17
2.826250 1.114193e-17
2.987750 1.113724e-17
3.149250 1.114853e-17
3.310750 1.117603e-17
3.472250 1.121237e-17
3.633750 1.124602e-17
3.795250 1.126658e-17
3.956750 1.126967e-17
4.118250 1.125887e-17
4.279750 1.124403e-17
4.441250 1.123668e-17
4.602750 1.124463e-17
4.764250 1.126839e-17
4.925750 1.130090e-17
5.087250 1.133091e-17
5.248750 1.134823e-17
5.410250 1.134851e-17
5.571750 1.133530e-17
5.733250 1.131848e-17
5.894750 1.130966e-17
6.056250 1.131685e-17
6.217750 1.134076e-17
6.379250 1.137449e-17
6.540750 1.140671e-17
6.702250 1.142692e-17
6.863750 1.143029e-17
7.025249 1.141979e-17
7.186749 1.140476e-17
7.348249 1.139649e-17
7.509749 1.140293e-17
7.671249 1.142496e-17
7.832749 1.145601e-17
7.994249 1.148512e-17
8.155749 1.150216e-17
8.317249 1.150251e-17
8.478749 1.148934e-17
8.640249 1.147210e-17
8.801749 1.146215e-17
8.963249 1.146748e-17
9.124749 1.148896e-17
9.286249 1.151993e-17
9.447749 1.154927e-17
9.609249 1.156655e-17
9.770749 1.156688e-17
9.932249 1.155309e-17
10.093749 1.153443e-17
10.255249 1.152218e-17
10.416749 1.152443e-17
10.578249 1.154231e-17
10.739749 1.156956e-17
10.901249 1.159545e-17
11.062749 1.160992e-17
11.224249 1.160824e-17
11.385749 1.159326e-17
11.547249 1.157404e-17
11.708749 1.156158e-17
11.870249 1.156368e-17
12.031749 1.158125e-17
12.193249 1.160791e-17
12.354749 1.163294e-17
12.516249 1.164631e-17
12.677749 1.164333e-17
12.839249 1.162682e-17
13.000749 1.160581e-17
13.162249 1.159133e-17
13.323749 1.159131e-17
13.485249 1.160698e-17
13.646749 1.163238e-17
13.808249 1.165721e-17
13.969748 1.167163e-17
14.131248 1.167088e-17
14.292748 1.165735e-17
14.454248 1.163943e-17
14.615748 1.162754e-17
14.777248 1.162919e-17
14.938748 1.164558e-17
15.100248 1.167103e-17
15.261748 1.169566e-17
15.423248 1.171004e-17
15.584748 1.170954e-17
15.746248 1.169641e-17
15.907748 1.167876e-17
16.069248 1.166671e-17
16.230749 1.166777e-17
16.392250 1.168338e-17
16.553751 1.170832e-17
16.715252 1.173313e-17
16.876753 1.174848e-17
17.038254 1.174943e-17
17.199755 1.173760e-17
17.361256 1.172038e-17
17.522757 1.170742e-17
17.684258 1.170625e-17
17.845758 1.171886e-17
18.007259 1.174085e-17
18.168760 1.176360e-17
18.330261 1.177823e-17
18.491762 1.177973e-17
18.653263 1.176923e-17
18.814764 1.175343e-17
18.976265 1.174149e-17
19.137766 1.174078e-17
19.299267 1.175354e-17
19.460768 1.177581e-17
19.622269 1.179925e-17
19.783770 1.181498e-17
19.945271 1.181758e-17
20.106771 1.180760e-17
20.268272 1.179130e-17
20.429773 1.177780e-17
20.591274 1.177496e-17
20.752775 1.178581e-17
20.914276 1.180725e-17
21.075777 1.183144e-17
21.237278 1.184945e-17
21.398779 1.185530e-17
21.560280 1.184871e-17
21.721781 1.183517e-17
21.883282 1.182341e-17
22.044783 1.182131e-17
22.206284 1.183227e-17
22.367785 1.185351e-17
22.529285 1.187734e-17
22.690786 1.189465e-17
22.852287 1.189910e-17
23.013788 1.189015e-17
23.175289 1.187339e-17
23.336790 1.185806e-17
23.498291 1.185289e-17
23.659792 1.186209e-17
23.821293 1.188337e-17
23.982794 1.190893e-17
24.144295 1.192898e-17
24.305796 1.193626e-17
24.467297 1.192936e-17
24.628798 1.191342e-17
24.790298 1.189779e-17
24.951799 1.189167e-17
25.113300 1.189984e-17
25.274801 1.192033e-17
25.436302 1.194530e-17
25.597803 1.196464e-17
25.759304 1.197070e-17
25.920805 1.196195e-17
26.082306 1.194388e-17
26.243807 1.192652e-17
26.405308 1.191988e-17
26.566809 1.192924e-17
26.728310 1.195260e-17
26.889811 1.198145e-17
27.051311 1.200463e-17
27.212812 1.201348e-17
27.374313 1.200591e-17
27.535814 1.198743e-17
27.697315 1.196868e-17
27.858816 1.196047e-17
28.020317 1.196874e-17
28.181818 1.199162e-17
28.343319 1.202028e-17
28.504820 1.204294e-17
28.666321 1.205042e-17
28.827822 1.204052e-17
28.989323 1.201921e-17
29.150824 1.199791e-17
29.312325 1.198823e-17
29.473825 1.199648e-17
29.635326 1.202062e-17
29.796827 1.205111e-17
29.958328 1.207530e-17
30.119829 1.208339e-17
30.281330 1.207311e-17
30.442831 1.205093e-17
30.604332 1.202913e-17
30.765833 1.202006e-17
30.927334 1.203031e-17
31.088835 1.205746e-17
31.250336 1.209107e-17
31.411837 1.211746e-17
31.573338 1.212612e-17
31.734838 1.211465e-17
31.896339 1.209003e-17
32.057838 1.206533e-17
32.219337 1.205366e-17
32.380836 1.206198e-17
32.542336 1.208771e-17
32.703835 1.211994e-17
32.865334 1.214452e-17
33.026833 1.215081e-17
33.188332 1.213674e-17
33.349831 1.210995e-17
33.511330 1.208424e-17
33.672829 1.207310e-17
33.834328 1.208330e-17
33.995827 1.211158e-17
34.157326 1.214612e-17
34.318825 1.217202e-17
34.480324 1.217833e-17
34.641823 1.216326e-17
34.803322 1.213506e-17
34.964821 1.210823e-17
35.126320 1.209673e-17
35.287819 1.210740e-17
35.449318 1.213678e-17
35.610817 1.217272e-17
35.772316 1.220021e-17
35.933815 1.220846e-17
36.095314 1.219601e-17
36.256813 1.217145e-17
36.418312 1.214929e-17
36.579811 1.214300e-17
36.741310 1.215857e-17
36.902809 1.219152e-17
37.064308 1.222890e-17
37.225807 1.225535e-17
37.387306 1.226023e-17
37.548805 1.224268e-17
37.710304 1.221197e-17
37.871803 1.218318e-17
38.033302 1.217011e-17
38.194801 1.217889e-17
38.356300 1.220517e-17
38.517799 1.223631e-17
38.679298 1.225747e-17
38.840797 1.225870e-17
39.002296 1.223972e-17
39.163795 1.221004e-17
39.325294 1.218451e-17
39.486794 1.217633e-17
39.648293 1.219081e-17
39.809792 1.222288e-17
39.971291 1.225949e-17
40.132790 1.228567e-17
40.294289 1.229160e-17
40.455788 1.227707e-17
40.617287 1.225151e-17
40.778786 1.222947e-17
40.940285 1.222371e-17
41.101784 1.223919e-17
41.263283 1.227075e-17
41.424782 1.230553e-17
41.586281 1.232903e-17
41.747780 1.233187e-17
41.909279 1.231413e-17
42.070778 1.228530e-17
42.232277 1.225977e-17
42.393776 1.225015e-17
42.555275 1.226140e-17
42.716774 1.228869e-17
42.878273 1.231971e-17
43.039772 1.234058e-17
43.201271 1.234239e-17
43.362770 1.232533e-17
43.524269 1.229862e-17
43.685768 1.227614e-17
43.847267 1.226993e-17
44.008766 1.228454e-17
44.170265 1.231494e-17
44.331764 1.234880e-17
44.493263 1.237225e-17
44.654762 1.237622e-17
44.816261 1.236063e-17
44.977760 1.233434e-17
45.139259 1.231092e-17
45.300758 1.230237e-17
45.462257 1.231358e-17
45.623756 1.234009e-17
45.785255 1.237026e-17
45.946754 1.239079e-17
46.108253 1.239288e-17
46.269753 1.237640e-17
46.431252 1.234991e-17
46.592751 1.232669e-17
46.754250 1.231856e-17
46.915749 1.233045e-17
47.077248 1.235807e-17
47.238747 1.238997e-17
47.400246 1.241287e-17
47.561745 1.241775e-17
47.723244 1.240408e-17
47.884743 1.237998e-17
48.046242 1.235841e-17
48.207741 1.235112e-17
48.369240 1.236321e-17
48.530739 1.239072e-17
48.692238 1.242247e-17
48.853737 1.244529e-17
49.015236 1.245006e-17
49.176735 1.243596e-17
49.338234 1.241080e-17
49.499733 1.238734e-17
49.661232 1.237737e-17
49.822731 1.238622e-17
49.984230 1.241033e-17
50.145729 1.243896e-17
50.307228 1.245928e-17
50.468727 1.246236e-17
50.630226 1.244741e-17
50.791725 1.242216e-17
50.953224 1.239925e-17
51.114723 1.239038e-17
51.276222 1.240077e-17
51.437721 1.242681e-17
51.599220 1.245768e-17
51.760719 1.248039e-17
51.922218 1.248584e-17
52.083717 1.247297e-17
52.245216 1.244924e-17
52.406715 1.242705e-17
52.568214 1.241794e-17
52.729713 1.242715e-17
52.891212 1.245125e-17
53.052711 1.247976e-17
53.214211 1.250014e-17
53.375710 1.250372e-17
53.537209 1.248976e-17
53.698708 1.246583e-17
53.860207 1.244421e-17
54.021706 1.243619e-17
54.183205 1.244673e-17
54.344704 1.247215e-17
54.506203 1.250187e-17
54.667702 1.252338e-17
54.829201 1.252806e-17
54.990700 1.251518e-17
55.152199 1.249221e-17
55.313698 1.247126e-17
55.475197 1.246340e-17
55.636696 1.247346e-17
55.798195 1.249783e-17
55.959694 1.252616e-17
56.121193 1.254623e-17
56.282692 1.254970e-17
56.444191 1.253596e-17
56.605690 1.251240e-17
56.767189 1.249092e-17
56.928688 1.248239e-17
57.090187 1.249157e-17
57.251686 1.251497e-17
57.413185 1.254252e-17
57.574684 1.256233e-17
57.736183 1.256626e-17
57.897682 1.255365e-17
58.059181 1.253163e-17
58.220680 1.251171e-17
58.382179 1.250435e-17
58.543678 1.251410e-17
58.705177 1.253746e-17
58.866676 1.256448e-17
59.028175 1.258344e-17
59.189674 1.258628e-17
59.351173 1.257231e-17
59.512672 1.254854e-17
59.674171 1.252640e-17
59.835670 1.251646e-17
59.997169 1.252356e-17
60.158669 1.254461e-17
60.320168 1.257017e-17
60.481667 1.258886e-17
60.643166 1.259274e-17
60.804665 1.258100e-17
60.966164 1.256038e-17
61.127663 1.254195e-17
61.289162 1.253597e-17
61.450661 1.254705e-17
61.612160 1.257191e-17
61.773659 1.260091e-17
61.935158 1.262244e-17
62.096657 1.262828e-17
62.258156 1.261743e-17
62.419655 1.259650e-17
62.581154 1.257672e-17
62.742653 1.256862e-17
62.904152 1.257724e-17
63.065651 1.259973e-17
63.227150 1.262674e-17
63.388649 1.264675e-17
63.550148 1.265150e-17
63.711647 1.263979e-17
63.873146 1.261808e-17
64.034645 1.259744e-17
64.196144 1.258835e-17
64.357643 1.259581e-17
64.519142 1.261694e-17
64.680641 1.264228e-17
64.842140 1.266021e-17
65.003639 1.266236e-17
65.165138 1.264752e-17
65.326637 1.262226e-17
65.488136 1.259791e-17
65.649635 1.258536e-17
65.811134 1.259003e-17
65.972633 1.260942e-17
66.134132 1.263432e-17
66.295631 1.265318e-17
66.457130 1.265746e-17
66.618629 1.264567e-17
66.780128 1.262401e-17
66.941628 1.260352e-17
67.103127 1.259488e-17
67.264626 1.260346e-17
67.426125 1.262686e-17
67.587624 1.265602e-17
67.749123 1.267946e-17
67.910622 1.268857e-17
68.072121 1.268158e-17
68.233620 1.266429e-17
68.395119 1.264726e-17
68.556618 1.264081e-17
68.718117 1.265014e-17
68.879616 1.267286e-17
69.041115 1.270009e-17
69.202614 1.272054e-17
69.364113 1.272576e-17
69.525612 1.271401e-17
69.687111 1.269109e-17
69.848610 1.266761e-17
70.010109 1.265413e-17
70.171608 1.265626e-17
70.333107 1.267223e-17
70.494606 1.269373e-17
70.656105 1.270997e-17
70.817604 1.271273e-17
70.979103 1.270030e-17
71.140602 1.267837e-17
71.302101 1.265740e-17
71.463600 1.264784e-17
71.625099 1.265528e-17
71.786598 1.267782e-17
71.948097 1.270690e-17
72.109596 1.273116e-17
72.271095 1.274159e-17
72.432594 1.273559e-17
72.594093 1.271803e-17
72.755592 1.269886e-17
72.917091 1.268833e-17
73.078590 1.269217e-17
73.240089 1.270879e-17
73.401588 1.273000e-17
73.563087 1.274479e-17
73.724586 1.274461e-17
73.886086 1.272748e-17
74.047585 1.269917e-17
74.209084 1.267083e-17
74.370583 1.265406e-17
74.532082 1.265578e-17
74.693581 1.267515e-17
74.855080 1.270408e-17
75.016579 1.273105e-17
75.178078 1.274639e-17
75.339577 1.274678e-17
75.501076 1.273661e-17
75.662575 1.272578e-17
75.824074 1.272478e-17
75.985573 1.273954e-17
76.147072 1.276824e-17
76.308571 1.280192e-17
76.470070 1.282835e-17
76.631569 1.283764e-17
76.793068 1.282679e-17
76.954567 1.280118e-17
77.116066 1.277214e-17
77.277565 1.275183e-17
77.439064 1.274760e-17
77.600563 1.275861e-17
77.762062 1.277616e-17
77.923561 1.278769e-17
78.085060 1.278248e-17
78.246559 1.275653e-17
78.408058 1.271431e-17
78.569557 1.266666e-17
78.731056 1.262588e-17
78.892555 1.260040e-17
79.054054 1.259159e-17
79.215553 1.259422e-17
79.377052 1.260042e-17
79.538551 1.260503e-17
79.700050 1.260988e-17
79.861549 1.262460e-17
80.023048 1.266335e-17
80.184547 1.273880e-17
80.346046 1.285577e-17
80.507545 1.300745e-17
80.669044 1.317571e-17
80.830544 1.333551e-17
80.992043 1.346140e-17
81.153542 1.353350e-17
81.315041 1.354062e-17
81.476540 1.347974e-17
81.638039 1.335279e-17
81.799538 1.316307e-17
81.961037 1.291358e-17
82.122536 1.260857e-17
82.284035 1.225781e-17
82.445534 1.188155e-17
82.607033 1.151340e-17
82.768532 1.119885e-17
82.930031 1.098915e-17
83.091530 1.093172e-17
83.253029 1.106018e-17
83.414528 1.138677e-17
83.576027 1.189941e-17
83.737526 1.256351e-17
83.899025 1.332721e-17
84.060524 1.412760e-17
84.222023 1.489607e-17
84.383522 1.556175e-17
84.545021 1.605407e-17
84.706520 1.630595e-17
84.868019 1.625944e-17
85.029518 1.587434e-17
85.191017 1.513864e-17
85.352516 1.407810e-17
85.514015 1.276163e-17
85.675514 1.129986e-17
85.837013 9.836206e-18
85.998512 8.531393e-18
86.160011 7.544613e-18
86.321510 7.014628e-18
86.483009 7.043746e-18
86.644508 7.686168e-18
86.806007 8.940732e-18
86.967506 1.074729e-17
87.129005 1.298605e-17
87.290504 1.548011e-17
87.452003 1.800250e-17
87.613503 2.028950e-17
87.775002 2.206162e-17
87.936501 2.305170e-17
88.098000 2.303789e-17
88.259499 2.187695e-17
88.420998 1.953238e-17
88.582497 1.609271e-17
88.743996 1.177634e-17
88.905495 6.922172e-18
89.066994 1.967010e-18
89.228493 -2.587703e-18
89.389992 -6.216854e-18
89.551491 -8.417742e-18
89.712990 -8.758869e-18
89.874489 -6.929048e-18
90.035988 -2.783528e-18
90.197487 3.617451e-18
90.358986 1.198335e-17
90.520485 2.178722e-17
90.681984 3.228353e-17
90.843483 4.255205e-17
91.004982 5.156639e-17
91.166481 5.828201e-17
91.327980 6.173600e-17
91.489479 6.114868e-17
91.650978 5.601780e-17
91.812477 4.619624e-17
91.973976 3.194614e-17
92.135475 1.396312e-17
92.296974 -6.633700e-18
92.458473 -2.834973e-17
92.619972 -4.940180e-17
92.781471 -6.784255e-17
92.942970 -8.171634e-17
93.104469 -8.923638e-17
93.265968 -8.896836e-17
93.427467 -8.000271e-17
93.588966 -6.209658e-17
93.750465 -3.576857e-17
93.911964 -2.332462e-18
94.073463 3.613835e-17
94.234962 7.691760e-17
94.396461 1.168010e-16
94.557961 1.523392e-16
94.719460 1.801142e-16
94.880959 1.970402e-16
95.042458 2.006656e-16
95.203957 1.894492e-16
95.365456 1.629830e-16
95.526955 1.221344e-16
95.688454 6.908604e-17
95.849953 7.258021e-18
96.011452 -5.889169e-17
96.172951 -1.241807e-16
96.334450 -1.831089e-16
96.495949 -2.303274e-16
96.657448 -2.611303e-16
96.818947 -2.719241e-16
96.980446 -2.606305e-16
97.141945 -2.269786e-16
97.303444 -1.726523e-16
97.464943 -1.012659e-16
97.626442 -1.815694e-17
97.787941 7.000089e-17
97.949440 1.557428e-16
98.110939 2.314756e-16
98.272438 2.902021e-16
98.433937 3.262397e-16
98.595436 3.358572e-16
98.756935 3.177585e-16
98.918434 2.733497e-16
99.079933 2.067452e-16
99.241432 1.244920e-16
99.402931 3.501716e-17
99.564430 -5.216201e-17
99.725929 -1.274033e-16
99.887428 -1.819941e-16
100.048927 -2.091896e-16
100.210426 -2.051234e-16
100.371925 -1.694826e-16
100.533424 -1.058480e-16
100.694923 -2.163313e-17
100.856422 7.241531e-17
101.017921 1.631472e-16
101.179420 2.363063e-16
101.340919 2.780985e-16
101.502419 2.768836e-16
101.663918 2.248176e-16
101.825417 1.192661e-16
101.986916 -3.619167e-17
102.148415 -2.313193e-16
102.309914 -4.494448e-16
102.471413 -6.684036e-16
102.632912 -8.621730e-16
102.794411 -1.003126e-15
102.955910 -1.064729e-15
103.117409 -1.024464e-15
103.278908 -8.667159e-16
103.440407 -5.853260e-16
103.601906 -1.855322e-16
103.763405 3.149681e-16
103.924904 8.860207e-16
104.086403 1.486199e-15
104.247902 2.065174e-15
104.409401 2.567178e-15
104.570900 2.935338e-15
104.732399 3.116598e-15
104.893898 3.066825e-15
105.055397 2.755690e-15
105.216896 2.170875e-15
105.378395 1.321212e-15
105.539894 2.383799e-16
105.701393 -1.023088e-15
105.862892 -2.387629e-15
106.024391 -3.762315e-15
106.185890 -5.042225e-15
106.347389 -6.117215e-15
106.508888 -6.879734e-15
106.670387 -7.233132e-15
106.831886 -7.099924e-15
106.993385 -6.429410e-15
107.154884 -5.204065e-15
107.316383 -3.444182e-15
107.477882 -1.210320e-15
107.639381 1.396763e-15
107.800880 4.238891e-15
107.962379 7.146002e-15
108.123878 9.924291e-15
108.285378 1.236671e-14
108.446877 1.426533e-14
108.608376 1.542505e-14
108.769875 1.567789e-14
108.931374 1.489703e-14
109.092873 1.300978e-14
109.254372 1.000854e-14
109.415871 5.958873e-15
109.577370 1.003784e-15
109.738869 -4.636414e-15
109.900368 -1.066927e-14
110.061867 -1.674065e-14
110.223366 -2.245058e-14
110.384865 -2.737406e-14
110.546364 -3.108622e-14
110.707863 -3.319070e-14
110.869362 -3.334976e-14
111.030861 -3.131431e-14
111.192360 -2.695185e-14
111.353859 -2.026991e-14
111.515358 -1.143297e-14
111.676857 -7.706328e-16
111.838356 1.122472e-14
111.999855 2.391178e-14
112.161354 3.652647e-14
112.322853 4.821981e-14
112.484352 5.810642e-14
112.645851 6.532129e-14
112.807350 6.908187e-14
112.968849 6.875130e-14
113.130348 6.389858e-14
113.291847 5.435073e-14
113.453346 4.023236e-14
113.614845 2.198824e-14
113.776344 3.856584e-16
113.937843 -2.350578e-14
114.099342 -4.835769e-14
114.260841 -7.264885e-14
114.422340 -9.475068e-14
114.583839 -1.130280e-13
114.745338 -1.259490e-13
114.906837 -1.321969e-13
115.068336 -1.307767e-13
115.229836 -1.211069e-13
115.391335 -1.030903e-13
115.552834 -7.715667e-14
115.714333 -4.427266e-14
115.875832 -5.915396e-15
116.037331 3.598921e-14
116.198830 7.916202e-14
116.360329 1.210949e-13
116.521828 1.591962e-13
116.683327 1.909482e-13
116.844826 2.140671e-13
117.006325 2.266537e-13
117.167824 2.273249e-13
117.329323 2.153170e-13
117.490822 1.905525e-13
117.652321 1.536673e-13
117.813820 1.059946e-13
117.975319 4.950751e-14
118.136818 -1.327572e-14
118.298317 -7.941689e-14
118.459816 -1.457059e-13
118.621315 -2.088212e-13
118.782814 -2.654925e-13
118.944313 -3.126566e-13
119.105812 -3.475977e-13
119.267311 -3.680664e-13
119.428810 -3.723735e-13
119.590309 -3.594556e-13
119.751808 -3.289158e-13
119.913307 -2.810404e-13
120.074806 -2.167965e-13
120.236305 -1.378151e-13
120.397804 -4.636274e-14
120.559303 5.469394e-14
120.720802 1.619309e-13
120.882301 2.714171e-13
121.043800 3.787782e-13
121.205299 4.792764e-13
121.366798 5.679166e-13
121.528297 6.395830e-13
121.689796 6.892149e-13
121.851295 7.120244e-13
122.012794 7.037541e-13
122.174294 6.609726e-13
122.335793 5.813921e-13
122.497292 4.641941e-13
122.658791 3.103367e-13
122.820290 1.228175e-13
122.981789 -9.314114e-14
123.143288 -3.300142e-13
123.304787 -5.780341e-13
123.466286 -8.254090e-13
123.627785 -1.058716e-12
123.789284 -1.263470e-12
123.950783 -1.424857e-12
124.112282 -1.528599e-12
124.273781 -1.561920e-12
124.435280 -1.514549e-12
124.596779 -1.379684e-12
124.758278 -1.154869e-12
124.919777 -8.426782e-13
125.081276 -4.511575e-13
125.242775 6.045571e-15
125.404274 5.099097e-13
125.565773 1.036644e-12
125.727272 1.558670e-12
125.888771 2.045943e-12
126.050270 2.467572e-12
126.211769 2.793630e-12
126.373268 2.997069e-12
126.534767 3.055609e-12
126.696266 2.953480e-12
126.857765 2.682876e-12
127.019264 2.245029e-12
127.180763 1.650792e-12
127.342262 9.206624e-13
127.503761 8.423039e-14
127.665260 -8.209567e-13
127.826759 -1.751063e-12
127.988258 -2.658086e-12
128.149765 -3.492318e-12
128.311264 -4.205011e-12
128.472763 -4.751085e-12
128.634262 -5.091735e-12
128.795761 -5.196771e-12
128.957260 -5.046566e-12
129.118759 -4.633493e-12
129.280258 -3.962772e-12
129.441757 -3.052690e-12
129.603256 -1.934169e-12
129.764755 -6.497311e-13
129.926254 7.481114e-13
130.087753 2.198937e-12
130.249252 3.636879e-12
130.410751 4.993367e-12
130.572250 6.200030e-12
130.733749 7.191650e-12
130.895248 7.909080e-12
131.056747 8.302014e-12
131.218246 8.331538e-12
131.379745 7.972379e-12
131.541245 7.214786e-12
131.702744 6.065966e-12
131.864243 4.550988e-12
132.025742 2.713118e-12
132.187241 6.134584e-13
132.348740 -1.670137e-12
132.510239 -4.044967e-12
132.671738 -6.406235e-12
132.833237 -8.640659e-12
132.994736 -1.063093e-11
133.156235 -1.226088e-11
133.317734 -1.342130e-11
133.479233 -1.401610e-11
133.640732 -1.396857e-11
133.802231 -1.322740e-11
133.963730 -1.177205e-11
134.125229 -9.617044e-12
134.286728 -6.814812e-12
134.448227 -3.456684e-12
134.609726 3.282881e-13
134.771225 4.376834e-12
134.932724 8.497398e-12
135.094223 1.247837e-11
135.255722 1.609837e-11
135.417221 1.913810e-11
135.578720 2.139319e-11
135.740219 2.268733e-11
135.901718 2.288473e-11
136.063217 2.190120e-11
136.224716 1.971291e-11
136.386215 1.636206e-11
136.547714 1.195886e-11
136.709213 6.679549e-12
136.870712 7.600454e-13
137.032211 -5.514375e-12
137.193710 -1.182311e-11
137.355209 -1.782720e-11
137.516708 -2.318829e-11
137.678207 -2.758848e-11
137.839706 -3.074982e-11
138.001205 -3.245206e-11
138.162704 -3.254767e-11
138.324203 -3.097280e-11
138.485703 -2.775359e-11
138.647202 -2.300712e-11
138.808701 -1.693697e-11
138.970200 -9.823421e-12
139.131699 -2.009048e-12
139.293198 6.119661e-12
139.454697 1.415334e-11
139.616196 2.168224e-11
139.777695 2.831867e-11
139.939194 3.371813e-11
140.100693 3.759770e-11
140.262192 3.975075e-11
140.423691 4.005710e-11
140.585190 3.848808e-11
140.746689 3.510656e-11
140.908188 3.006201e-11
141.069687 2.358106e-11
141.231186 1.595458e-11
141.392685 7.521983e-12
141.554184 -1.345980e-12
141.715683 -1.026501e-11
141.877182 -1.885455e-11
142.038681 -2.675369e-11
142.200180 -3.363511e-11
142.361679 -3.921656e-11
142.523178 -4.326962e-11
142.684677 -4.562583e-11
142.846176 -4.618028e-11
143.007675 -4.489298e-11
143.169174 -4.178840e-11
143.330673 -3.695351e-11
143.492172 -3.053458e-11
143.653671 -2.273313e-11
143.815170 -1.380091e-11
143.976669 -4.034095e-12
144.138168 6.233491e-12
144.299667 1.663831e-11
144.461166 2.679633e-11
144.622665 3.631376e-11
144.784164 4.479926e-11
144.945663 5.187752e-11
145.107162 5.720403e-11
145.268661 6.048039e-11
145.430161 6.146969e-11
145.591660 6.001086e-11
145.753159 5.603135e-11
145.914658 4.955698e-11
146.076157 4.071809e-11
146.237656 2.975130e-11
146.399155 1.699624e-11
146.560654 2.887073e-12
146.722153 -1.206111e-11
146.883652 -2.727062e-11
147.045151 -4.212353e-11
147.206650 -5.598686e-11
147.368149 -6.823955e-11
147.529648 -7.829958e-11
147.691147 -8.565014e-11
147.852646 -8.986337e-11
148.014145 -9.062055e-11
148.175644 -8.772790e-11
148.337143 -8.112753e-11
148.498642 -7.090306e-11
148.660141 -5.728015e-11
148.821640 -4.062206e-11
148.983139 -2.142090e-11
149.144638 -2.849310e-13
149.306137 2.207750e-11
149.467636 4.487675e-11
149.629135 6.726329e-11
149.790634 8.835124e-11
149.952133 1.072442e-10
150.113632 1.230632e-10
150.275131 1.349768e-10
150.436630 1.422333e-10
150.598129 1.441946e-10
150.759628 1.403714e-10
150.921127 1.304575e-10
151.082626 1.143638e-10
151.244125 9.224697e-11
151.405624 6.453343e-11
151.567123 3.193334e-11
151.728622 -4.556288e-12
151.890121 -4.366306e-11
152.051620 -8.386662e-11
152.213120 -1.234435e-10
152.374619 -1.605297e-10
152.536118 -1.931994e-10
152.697617 -2.195576e-10
152.859116 -2.378436e-10
153.020615 -2.465376e-10
153.182114 -2.444673e-10
153.343613 -2.309045e-10
153.505112 -2.056466e-10
153.666611 -1.690741e-10
153.828110 -1.221796e-10
153.989609 -6.656282e-11
154.151108 -4.388355e-12
154.312607 6.169274e-11
154.474106 1.286568e-10
154.635605 1.932512e-10
154.797104 2.521609e-10
154.958603 3.021887e-10
155.120102 3.404378e-10
155.281601 3.644857e-10
155.443100 3.725383e-10
155.604599 3.635519e-10
155.766098 3.373165e-10
155.927597 2.944916e-10
156.089096 2.365935e-10
156.250595 1.659321e-10
156.412094 8.550140e-11
156.573593 -1.169713e-12
156.735092 -9.019706e-11
156.896591 -1.775401e-10
157.058090 -2.592072e-10
157.219589 -3.314551e-10
157.381088 -3.909695e-10
157.542587 -4.350175e-10
157.704086 -4.615640e-10
157.865585 -4.693456e-10
158.027084 -4.579034e-10
158.188583 -4.275725e-10
158.350082 -3.794369e-10
158.511581 -3.152531e-10
158.673080 -2.373525e-10
158.834579 -1.485315e-10
158.996078 -5.193727e-11
159.157578 4.904384e-11
159.319077 1.508888e-10
159.480576 2.500299e-10
159.642075 3.429352e-10
159.803574 4.261800e-10
159.965073 4.965130e-10
160.126572 5.509238e-10
160.288071 5.867157e-10
160.449570 6.015893e-10
160.611069 5.937407e-10
160.772568 5.619716e-10
160.934067 5.058113e-10
161.095566 4.256408e-10
161.257065 3.228094e-10
161.418564 1.997309e-10
161.580063 5.994304e-11
161.741562 -9.188413e-11
161.903061 -2.500062e-10
162.064560 -4.077393e-10
162.226059 -5.576774e-10
162.387558 -6.919947e-10
162.549057 -8.028215e-10
162.710556 -8.826831e-10
162.872055 -9.249760e-10
163.033554 -9.244535e-10
163.195053 -8.776868e-10
163.356552 -7.834651e-10
163.518051 -6.430989e-10
163.679550 -4.605921e-10
163.841049 -2.426591e-10
164.002548 1.434417e-12
164.164047 2.602088e-10
164.325546 5.204828e-10
164.487045 7.680388e-10
164.648544 9.884077e-10
164.810043 1.167730e-09
164.971542 1.293641e-09
165.133041 1.356111e-09
165.294540 1.348204e-09
165.456039 1.266669e-09
165.617538 1.112338e-09
165.779037 8.902784e-10
165.940536 6.096953e-10
166.102036 2.835558e-10
166.263535 -7.202995e-11
166.425034 -4.386496e-10
166.586533 -7.966008e-10
166.748032 -1.126012e-09
166.909531 -1.408003e-09
167.071030 -1.625807e-09
167.232529 -1.765785e-09
167.394028 -1.818262e-09
167.555527 -1.778136e-09
167.717026 -1.645206e-09
167.878525 -1.424223e-09
168.040024 -1.124638e-09
168.201523 -7.600832e-10
168.363022 -3.476163e-10
168.524521 9.321363e-11
168.686020 5.414205e-10
168.847519 9.756838e-10
169.009018 1.375428e-09
169.170517 1.721820e-09
169.332016 1.998623e-09
169.493515 2.192872e-09
169.655014 2.295342e-09
169.816513 2.300804e-09
169.978012 2.208077e-09
170.139511 2.019888e-09
170.301010 1.742592e-09
170.462509 1.385775e-09
170.624008 9.617814e-10
170.785507 4.852229e-10
170.947006 -2.752852e-11
171.108505 -5.588180e-10
171.270004 -1.090157e-09
171.431503 -1.602644e-09
171.593002 -2.077366e-09
171.754501 -2.495804e-09
171.916000 -2.840267e-09
172.077499 -3.094367e-09
172.238998 -3.243556e-09
172.400497 -3.275737e-09
172.561996 -3.181927e-09
172.723495 -2.956947e-09
172.884995 -2.600118e-09
173.046494 -2.115876e-09
173.207993 -1.514264e-09
173.369492 -8.112148e-10
173.530991 -2.856643e-11
173.692490 8.062599e-10
173.853989 1.660952e-09
174.015488 2.499395e-09
174.176987 3.283125e-09
174.338486 3.973129e-09
174.499985 4.531875e-09
174.661484 4.925493e-09
174.822983 5.125947e-09
174.984482 5.113065e-09
175.145981 4.876249e-09
175.307480 4.415742e-09
175.468979 3.743296e-09
175.630478 2.882173e-09
175.791977 1.866407e-09
175.953476 7.393477e-10
176.114975 -4.484781e-10
176.276474 -1.642056e-09
176.437973 -2.784984e-09
176.599472 -3.822757e-09
176.760971 -4.706043e-09
176.922470 -5.393685e-09
177.083969 -5.855222e-09
177.245468 -6.072729e-09
177.406967 -6.041808e-09
177.568466 -5.771668e-09
177.729965 -5.284237e-09
177.891464 -4.612387e-09
178.052963 -3.797372e-09
178.214462 -2.885692e-09
178.375961 -1.925609e-09
178.537460 -9.635979e-10
178.698959 -4.102211e-11
178.860458 8.086879e-10
179.021957 1.562117e-09
179.183456 2.207012e-09
179.344955 2.742397e-09
179.506454 3.177624e-09
179.667953 3.530428e-09
179.829453 3.824145e-09
179.990952 4.084337e-09
180.152451 4.335108e-09
180.313950 4.595445e-09
180.475449 4.875947e-09
180.636948 5.176258e-09
180.798447 5.483485e-09
180.959946 5.771814e-09
181.121445 6.003444e-09
181.282944 6.130837e-09
181.444443 6.100182e-09
181.605942 5.855861e-09
181.767441 5.345603e-09
181.928940 4.525945e-09
182.090439 3.367554e-09
182.251938 1.859999e-09
182.413437 1.548939e-11
182.574936 -2.128732e-09
182.736435 -4.509656e-09
182.897934 -7.039598e-09
183.059433 -9.609166e-09
183.220932 -1.209198e-08
183.382431 -1.435096e-08
183.543930 -1.624579e-08
183.705429 -1.764112e-08
183.866928 -1.841505e-08
184.028427 -1.846725e-08
184.189926 -1.772624e-08
184.351425 -1.615539e-08
184.512924 -1.375712e-08
184.674423 -1.057500e-08
184.835922 -6.693755e-09
184.997421 -2.236869e-09
185.158920 2.637871e-09
185.320419 7.744780e-09
185.481918 1.287822e-08
185.643417 1.782165e-08
185.804916 2.235737e-08
185.966415 2.627625e-08
186.127914 2.938721e-08
186.289413 3.152573e-08
186.450912 3.256124e-08
186.612411 3.240293e-08
186.773911 3.100384e-08
186.935410 2.836324e-08
187.096909 2.452712e-08
187.258408 1.958702e-08
187.419907 1.367737e-08
187.581406 6.971374e-09
187.742905 -3.241393e-10
187.904404 -7.974843e-09
188.065903 -1.572574e-08
188.227402 -2.330854e-08
188.388901 -3.044945e-08
188.550400 -3.687727e-08
188.711899 -4.233173e-08
188.873398 -4.657185e-08
189.034897 -4.938441e-08
189.196396 -5.059221e-08
189.357895 -5.006205e-08
189.519394 -4.771213e-08
189.680893 -4.351863e-08
189.842392 -3.752092e-08
190.003891 -2.982539e-08
190.165390 -2.060705e-08
190.326889 -1.010886e-08
190.488388 1.361756e-09
190.649887 1.343933e-08
190.811386 2.570987e-08
190.972885 3.772344e-08
191.134384 4.900943e-08
191.295883 5.909435e-08
191.457382 6.752118e-08
191.618881 7.386976e-08
191.780380 7.777714e-08
191.941879 7.895687e-08
192.103378 7.721611e-08
192.264877 7.246975e-08
192.426376 6.475026e-08
192.587875 5.421272e-08
192.749374 4.113451e-08
192.910873 2.590925e-08
193.072372 9.035135e-09
193.233871 -8.902046e-09
193.395370 -2.725049e-08
193.556870 -4.531766e-08
193.718369 -6.239815e-08
193.879868 -7.780275e-08
194.041367 -9.088733e-08
194.202866 -1.010804e-07
194.364365 -1.079077e-07
194.525864 -1.110127e-07
194.687363 -1.101726e-07
194.848862 -1.053086e-07
195.010361 -9.649030e-08
195.171860 -8.393432e-08
195.333359 -6.799704e-08
195.494858 -4.916236e-08
195.656357 -2.802477e-08
195.817856 -5.268911e-09
195.979355 1.835376e-08
196.140854 4.205009e-08
196.302353 6.501114e-08
196.463852 8.643813e-08
196.625351 1.055678e-07
196.786850 1.216962e-07
196.948349 1.342008e-07
197.109848 1.425598e-07
197.271347 1.463699e-07
197.432846 1.453602e-07
197.594345 1.394036e-07
197.755844 1.285250e-07
197.917343 1.129059e-07
198.078842 9.288501e-08
198.240341 6.895525e-08
198.401840 4.175636e-08
198.563339 1.206263e-08
198.724838 -1.923383e-08
198.886337 -5.114489e-08
199.047836 -8.261286e-08
199.209335 -1.125415e-07
199.370834 -1.398310e-07
199.532333 -1.634153e-07
199.693832 -1.823023e-07
199.855331 -1.956139e-07
200.016830 -2.026242e-07
200.178329 -2.027963e-07
200.339828 -1.958129e-07
200.501328 -1.816009e-07
200.662827 -1.603483e-07
200.824326 -1.325107e-07
200.985825 -9.880803e-08
201.147324 -6.021045e-08
201.308823 -1.791260e-08
201.470322 2.670190e-08
201.631821 7.210578e-08
201.793320 1.166809e-07
201.954819 1.587771e-07
202.116318 1.967744e-07
202.277817 2.291458e-07
202.439316 2.545190e-07
202.600815 2.717324e-07
202.762314 2.798858e-07